                                                                
version 2
run General-0-20170628-14:43:34-4176
attr configname General
attr datetime 20170628-14:43:34
attr experiment General
attr inifile omnetpp.ini
attr iterationvars ""
attr iterationvarsf ""
attr measurement ""
attr network tictoc1
attr processid 4176
attr repetition 0
attr replication #0
attr resultdir results
attr runnumber 0
attr seedset 0

vector 0  tictoc1.controller_src  ""  ETV
